[Molden Format]
[Molpro variables]
_NUMVAR=  811.0000000000000    
_AVOGAD= 0.6022136736000000E+24
_BOLTZ= 0.1380658000000000E-22
_CLIGHT=  29979245800.00000    
_EV2006= 0.3674930886769165E-01
_EV= 0.3674932534394180E-01
_ENULL= 0.8854187817000000E-11
_KJOULE= 0.3808798324128737E-03
_KJOULE/MOL= 0.3808798324128737E-03
_CM= 0.4556335267302901E-05
_CM-1= 0.4556335267302901E-05
_DEB2SI= 0.3335641000000000E-29
_AMU2AU=  1822.888390000000    
_KCAL= 0.1593601117815568E-02
_KCAL/MOL= 0.1593601117815568E-02
_KELVIN2006= 0.3166828861084835E-05
_KELVIN= 0.3166814820820034E-05
_JOULE= 0.4359748200000000E-17
_HERTZ2006= 0.1519829850815779E-15
_HERTZ= 0.1519829846011223E-15
_HZ2006= 0.1519829850815779E-15
_HZ= 0.1519829846011223E-15
_JPCAL=  4.184000000000000    
_PLANCK= 0.6626075540000000E-33
_TOA2006= 0.5291772490000000    
_TOA= 0.5291772090000000    
_TOANG2006= 0.5291772490000000    
_TOANG= 0.5291772090000000    
_TORAD= 0.1745329251994330E-01
_TOCM=  219474.6306700000    
_TODEBYE=  2.541580000000000    
_TOEV2006=  27.21139610000000    
_TOE= 0.4803242000000000E-09
_TOEV=  27.21138390000000    
_TOHERTZ2006=  6579683899900000.    
_TOHERTZ=  6579683920700000.    
_TOHZ2006=  6579683899900000.    
_TOHZ=  6579683920700000.    
_TOK2006=  315773.3000000000    
_TOK=  315774.7000000000    
_TOKCAL=  627.5096000000000    
_TOKELVIN2006=  315773.3000000000    
_TOKELVIN=  315774.7000000000    
_TOKJ=  2625.500000000000    
_TOKJOULE=  2625.500000000000    
_TOKG= 0.1660565586000000E-26
_ANG2006=  1.889725988578923    
_ANG=  1.889726131421507    
_ANGSTROM2006=  1.889725988578923    
_ANGSTROM=  1.889726131421507    
_RPAREF=  0.000000000000000    
_RPADISS=  0.000000000000000    
_IGNORE_UNDEF=  2.000000000000000    
_STRICTCHECK=  0.000000000000000    
_SEW_ONEEL=  0.000000000000000    
_CPPDONE=FALSE
_DKROLL_DONE=  0.000000000000000    
_FOCKDONE=FALSE
_GRADONE=FALSE
_HESSDONE=TRUE
_INTDONE=TRUE
_SCFDONE=FALSE
_MODUL_BLOCK=TRUE
_MODUL_CUDA=FALSE
_MODUL_SLATER=FALSE
_MODUL_MRCC=FALSE
_MODUL_NBO6=FALSE
_MODUL_NECI=TRUE
_MODUL_AIMS=TRUE
_MRCC_EXEC=
_FITC_AO_SAVED=FALSE
_FITC_MO_SAVED=FALSE
_SHARED_FS=TRUE
_LSTYP=SEWARD
_INTYP=INTS
_GEOMTYP=ZMAT
_GRADTYP=ALASKA
_DIRECT=FALSE
_DKHO= -1.000000000000000    
_SYNCM=  0.000000000000000    
_BASIS=6-31G*
_ZUNIT=ANG
_ZORIENT=  1.000000000000000    
_NELEC=  42.00000000000000    
!SPIN=  0.000000000000000    
_OPTCONV= 0.9685063521992370E-03
_QSDSTEP=  0.000000000000000    
_QSDIRC=  0.000000000000000    
_PROGRAM=FREQ
_CPUSTEP=  0.000000000000000    
_SYSSTEP=  0.000000000000000    
_WALLSTEP= 0.1000000000000000E-01
!DFHFENERG=  0.000000000000000    
!SCSGRD=  0.000000000000000    
_BASINP=  610.0000000000000    
_CPUTOT=  1255.850000000000    
_CPUSORT= 0.4300000000000637    
_SYSSORT= 0.2000000000000028    
_WALLSORT=  2.179999999701977    
_DMX=-0.1259876405970832    
_DMY= 0.3896384173288325E-01
_DMZ= 0.5302883524358179E-05
_FREQUENCIES= 0.1830136009363888E-04
_ENERGY= -230.7223115893054    
_ENUC=  200.5420370833474    
_EPS1= -11.22554880827973    
_FREQSTEP=  73.00000000000000    
_GRADENERG= -230.7223105195340    
_GRADMETHOD=TRUE
_NMRMETHOD=  0.000000000000000    
_VIRIAL=-0.1397440293353088E-03
!GRID_FREEZE= -1.000000000000000    
_ITERATIONS=  1.000000000000000    
_LASTNELEC=  6.000000000000000    
_LASTSPIN=  0.000000000000000    
_LASTSYM=  1.000000000000000    
_MPP_PROG=  0.000000000000000    
_NPROC_MPP=  1.000000000000000    
_NPROC_MPPX=  1.000000000000000    
_NPROC_SMP=  1.000000000000000    
_NUMSTEP=  0.000000000000000    
_OPTCONVMX= 0.4654296666579683E-03
_OPTCONVRMS= 0.2795837015767733E-03
_OPTGRAD= 0.3405453877222724E-03
_OPTGRADMX= 0.2196618938580210E-03
_OPTGRADRMS= 0.1135151292407575E-04
_OPTSTEP=  6.000000000000000    
_ORBITAL=  2140.200000000000    
_PI=  3.141592653589793    
!MCACT=  6.000000000000000    
!MCCLOSED=  18.00000000000000    
!MCFREEZE=  0.000000000000000    
!MCMS2=  0.000000000000000    
!MCNEL=  6.000000000000000    
!MCNSTSYM=  1.000000000000000    
!MCSTATE=  2.000000000000000    
!MCSYM=  1.000000000000000    
!MCWEIGHT= 0.5000000000000000    
_SEIG_MIN= 0.1186172131611548E-02
_SEWPROP=TRUE
_STATUS=  1.000000000000000    
_SYSTOT=  103.9200000000000    
_VERSION=  2012001.000000000    
_WALLTOT=  1727.740000000000    
_ZPE= 0.9345374206250684E-01
_DATE=22-Jul-20
_LASTORB=MCSCF
_MACHINE=Linux-3.10.0-1127.8.2.el7.x86_64/polonium8(x86_64) 64 bit serial version
_OUTPUT=/user/moritz/for_julia/molecular_tully/fulvene/opt/MOLPRO.xml
_PGROUP=C1
_TIME=16:23:45
_LIBMOL=/usr/license/molpro/molpros_2012_1_5_Linux_x86_64_i8/lib/
!VIBCNT=  0.000000000000000    
!RGHFCNT=  0.000000000000000    
!SURFREC=  0.000000000000000    
!POLYREC=  0.000000000000000    
!DIPREC=  0.000000000000000    
!VSCFREC=  0.000000000000000    
!VCIREC=  0.000000000000000    
!PVCIREC=  0.000000000000000    
!VMP2REC=  0.000000000000000    
!VMCSCFREC=  0.000000000000000    
!VMRCIREC=  0.000000000000000    
!VIBINFO=  0.000000000000000    
!GAREC=  0.000000000000000    
!MCORB=  21402.00000000000    
!NEWMOL=  0.000000000000000    
!NEWSYM=  0.000000000000000    
_SLFILES=slscratch
_NGSSTO=  9.000000000000000    
_SIN=SIN
_COS=COS
_TAN=TAN
_ACOS=ACOS
_ASIN=ASIN
_ATAN=ATAN
_COSH=COSH
_SINH=SINH
_TANH=TANH
_ABS=ABS
_MOD=MOD
_ERF=ERF
_REFC=REFC
_ERFC=ERFC
_HYPOT=HYPOT
_J0=J0
_J1=J1
_JN=JN
_GAMMA=GAMMA
_LGAMMA=LGAMMA
_Y0=Y0
_Y1=Y1
_YN=YN
_EXP=EXP
_LOG=LOG
_LOG10=LOG10
_SQRT=SQRT
_INT=INT
_NINT=NINT
_MAX=MAX
_MIN=MIN
_COSMO=  0.000000000000000    
_COSMOIT=  0.000000000000000    
_COSMOES=  0.000000000000000    
_COSMOEDS=  0.000000000000000    
_COSMOEC=  0.000000000000000    
_COSMOEDCORR=  0.000000000000000    
_FEPSI=  1.000000000000000    
_SL_IsMM=  0.000000000000000    
_SL_NSYM=  1.000000000000000    
_SL_System_BitSw=  0.000000000000000    
_SL_Unique_atoms=  0.000000000000000    
_SL_GRAD=  0.000000000000000    
_SL_MAXUPD_Hess=  5.000000000000000    
_SL_N_PRINT_COD=  5.000000000000000    
_SL_PRINT_CODES=  0.000000000000000    
_SL_BasType=  0.000000000000000    
_SL_Energy_Pred=  0.000000000000000    
_SL_New_Coords=  0.000000000000000    
_SL_Total_Nuclea=  0.000000000000000    
_SL_Highest_Mltp=  0.000000000000000    
_SL_Ref_Geom=  0.000000000000000    
_SL_Symmetry_ope=  1.000000000000000    
_SL_agrad=  0.000000000000000    
_SL_GrdMax=  0.000000000000000    
_SL_GrdNorm=  0.000000000000000    
_SL_GrdRMS=  0.000000000000000    
!LATTICE= -1.000000000000000    
!NEWLATTICE=  0.000000000000000    
!LATGRAD_VAR=FALSE
!SEW_LATTICE=  1.000000000000000    
!LOCAL=  0.000000000000000    
!SAVEDOM= -1.000000000000000    
!RESTDOM= -1.000000000000000    
!SAVEDOM_HF= -1.000000000000000    
!RESTDOM_HF= -1.000000000000000    
!HESSREC=  5300.200000000000    
!FREQREC=  5400.200000000000    
!NMODREC=  5450.200000000000    
!GTASKS=  0.000000000000000    
!HTASKS=  5500.200000000000    
!DEBUG=  0.000000000000000    
!CFIT_CPHF=  0.000000000000000    
!RDOMAUX_CPHF=  0.000000000000000    
!THRAO_CPHF= 0.1000000000000000E-11
!THRMO_CPHF= 0.1000000000000000E-11
!THROV_CPHF= 0.1000000000000000E-11
!THRSW_CPHF= 0.1000000000000000E-11
!THRPROD_CPHF= 0.1000000000000000E-11
!THRAOPR_CPHF= 0.1000000000000000E-11
!CFIT_SCFGRD=  0.000000000000000    
!RDOMAUX_SCFGRD=  0.000000000000000    
!THRAO_SCFGRD= 0.1000000000000000E-11
!THRMO_SCFGRD= 0.1000000000000000E-11
!THROV_SCFGRD= 0.1000000000000000E-11
!THRSW_SCFGRD= 0.1000000000000000E-11
!THRPROD_SCFGRD= 0.1000000000000000E-11
!THRAOPR_SCFGRD= 0.1000000000000000E-11
!LOCFIT_SCF=  0.000000000000000    
!LOCFIT_MP2=  0.000000000000000    
_RIDOM=  0.000000000000000    
!CC2_METHOD=  0.000000000000000    
_BASIS2006=FALSE
_SVDDEL= -1.000000000000000    
_SVDDELA= -1.000000000000000    
_SVDDELP= -1.000000000000000    
_SVDDELF= -1.000000000000000    
_SVDDELS= -1.000000000000000    
_SVDDEL_ABS= -1.000000000000000    
_SVDDELA_ABS= -1.000000000000000    
_SVDDELP_ABS= -1.000000000000000    
_SVDDELF_ABS= -1.000000000000000    
_SVDDELS_ABS= -1.000000000000000    
_MAXBASIS=  0.000000000000000    
!OPT_CONICAL=  0.000000000000000    
!CLEARSP_JGRID=  0.000000000000000    
_4EXT_NDISKS=  1.000000000000000    
!ZMP=  0.000000000000000    
_MAXIT_ZMP=  500.0000000000000    
_MAXDIS_ZMP=  100.0000000000000    
_ACCU_ZMP=  14.00000000000000    
_SHIFTA_ZMP= -100.0000000000000    
!EMBEDFLAG=  1.000000000000000    
!EMBED=FALSE
!EMBED_F12=FALSE
!EMBEDNUC=  0.000000000000000    
_EMBEDENERGY=  0.000000000000000    
_KSPACETIME=  0.000000000000000    
_RSPACETIME=  0.000000000000000    
!EMBED_DFC=FALSE
!NUM_VOIDS=  0.000000000000000    
_IBODY=  0.000000000000000    
_EMBE_TOTAL=  0.000000000000000    
_EMBE_HF=  0.000000000000000    
_EMBE_CORR=  0.000000000000000    
!EDFT=  0.000000000000000    
_IFASTLATGRAD=  0.000000000000000    
_SINDEX=  0.000000000000000    
GX1=-0.1236228864780149    
GY1= -1.379204809191606    
GZ1= 0.1318752012445870E-04
GX2=  1.230619156088481    
GY2= -1.341738534150213    
GZ2= 0.1886851110274694E-05
GX3=  1.667856374069899    
GY3= 0.7205481128409665E-01
GZ3=-0.2309924081006758E-04
GX4= 0.5712042788433933    
GY4= 0.8674979103167050    
GZ4=-0.1700067170888955E-04
GX5=-0.7483699288840281    
GY5= -2.250904732213214    
GZ5= 0.6845028455857490E-04
GX6=  1.893427892730618    
GY6= -2.185298762077996    
GZ6= 0.2508500475454072E-04
GX7=  2.691164079369254    
GY7= 0.3941583791294481    
GZ7=-0.9591152250578838E-04
GX8= 0.5476394454834458    
GY8=  1.939698530730329    
GZ8=-0.4638666311692751E-04
GX9=-0.6265920811294341    
GY9= 0.7140857782787472E-02
GZ9= 0.1345991258886424E-04
GX10= -1.915296268762247    
GY10= 0.4056917735352475    
GZ10= 0.4723984044695350E-04
GX11= -2.181411659193684    
GY11=  1.447288525459711    
GZ11=-0.4910987330380807E-04
GX12= -2.722966802137682    
GY12=-0.3038218706052965    
GZ12= 0.1791685578618076E-03
_TRDMX=-0.6554707962543964E-01
_TRDMY=-0.2119455488814416    
_TRDMZ=-0.5464116575293080E-07
[Atoms] Angs
C     1    6        -0.1236228865       -1.3792048092        0.0000131875
C     2    6         1.2306191561       -1.3417385342        0.0000018869
C     3    6         1.6678563741        0.0720548113       -0.0000230992
C     4    6         0.5712042788        0.8674979103       -0.0000170007
H     5    1        -0.7483699289       -2.2509047322        0.0000684503
H     6    1         1.8934278927       -2.1852987621        0.0000250850
H     7    1         2.6911640794        0.3941583791       -0.0000959115
H     8    1         0.5476394455        1.9396985307       -0.0000463867
C     9    6        -0.6265920811        0.0071408578        0.0000134599
C    10    6        -1.9152962688        0.4056917735        0.0000472398
H    11    1        -2.1814116592        1.4472885255       -0.0000491099
H    12    1        -2.7229668021       -0.3038218706        0.0001791686
[GTO]
  1 0
 s    6  1.00
  0.3047524900D+04  0.1834737091D-02
  0.4573695200D+03  0.1403732293D-01
  0.1039486800D+03  0.6884262165D-01
  0.2921015500D+02  0.2321844388D+00
  0.9286663000D+01  0.4679413476D+00
  0.3163927000D+01  0.3623119882D+00
 s    3  1.00
  0.7868272300D+01 -0.1193324245D+00
  0.1881288500D+01 -0.1608541561D+00
  0.5442492600D+00  0.1143456443D+01
 s    1  1.00
  0.1687144800D+00  0.1000000000D+01
 p    3  1.00
  0.7868272300D+01  0.6899906693D-01
  0.1881288500D+01  0.3164239597D+00
  0.5442492600D+00  0.7443082892D+00
 p    1  1.00
  0.1687144800D+00  0.1000000000D+01
 d    1  1.00
  0.8000000000D+00  0.1000000000D+01
  
  2 0
 s    6  1.00
  0.3047524900D+04  0.1834737091D-02
  0.4573695200D+03  0.1403732293D-01
  0.1039486800D+03  0.6884262165D-01
  0.2921015500D+02  0.2321844388D+00
  0.9286663000D+01  0.4679413476D+00
  0.3163927000D+01  0.3623119882D+00
 s    3  1.00
  0.7868272300D+01 -0.1193324245D+00
  0.1881288500D+01 -0.1608541561D+00
  0.5442492600D+00  0.1143456443D+01
 s    1  1.00
  0.1687144800D+00  0.1000000000D+01
 p    3  1.00
  0.7868272300D+01  0.6899906693D-01
  0.1881288500D+01  0.3164239597D+00
  0.5442492600D+00  0.7443082892D+00
 p    1  1.00
  0.1687144800D+00  0.1000000000D+01
 d    1  1.00
  0.8000000000D+00  0.1000000000D+01
  
  3 0
 s    6  1.00
  0.3047524900D+04  0.1834737091D-02
  0.4573695200D+03  0.1403732293D-01
  0.1039486800D+03  0.6884262165D-01
  0.2921015500D+02  0.2321844388D+00
  0.9286663000D+01  0.4679413476D+00
  0.3163927000D+01  0.3623119882D+00
 s    3  1.00
  0.7868272300D+01 -0.1193324245D+00
  0.1881288500D+01 -0.1608541561D+00
  0.5442492600D+00  0.1143456443D+01
 s    1  1.00
  0.1687144800D+00  0.1000000000D+01
 p    3  1.00
  0.7868272300D+01  0.6899906693D-01
  0.1881288500D+01  0.3164239597D+00
  0.5442492600D+00  0.7443082892D+00
 p    1  1.00
  0.1687144800D+00  0.1000000000D+01
 d    1  1.00
  0.8000000000D+00  0.1000000000D+01
  
  4 0
 s    6  1.00
  0.3047524900D+04  0.1834737091D-02
  0.4573695200D+03  0.1403732293D-01
  0.1039486800D+03  0.6884262165D-01
  0.2921015500D+02  0.2321844388D+00
  0.9286663000D+01  0.4679413476D+00
  0.3163927000D+01  0.3623119882D+00
 s    3  1.00
  0.7868272300D+01 -0.1193324245D+00
  0.1881288500D+01 -0.1608541561D+00
  0.5442492600D+00  0.1143456443D+01
 s    1  1.00
  0.1687144800D+00  0.1000000000D+01
 p    3  1.00
  0.7868272300D+01  0.6899906693D-01
  0.1881288500D+01  0.3164239597D+00
  0.5442492600D+00  0.7443082892D+00
 p    1  1.00
  0.1687144800D+00  0.1000000000D+01
 d    1  1.00
  0.8000000000D+00  0.1000000000D+01
  
  5 0
 s    3  1.00
  0.1873113700D+02  0.3349460400D-01
  0.2825394400D+01  0.2347269500D+00
  0.6401216900D+00  0.8137573301D+00
 s    1  1.00
  0.1612777600D+00  0.1000000000D+01
  
  6 0
 s    3  1.00
  0.1873113700D+02  0.3349460400D-01
  0.2825394400D+01  0.2347269500D+00
  0.6401216900D+00  0.8137573301D+00
 s    1  1.00
  0.1612777600D+00  0.1000000000D+01
  
  7 0
 s    3  1.00
  0.1873113700D+02  0.3349460400D-01
  0.2825394400D+01  0.2347269500D+00
  0.6401216900D+00  0.8137573301D+00
 s    1  1.00
  0.1612777600D+00  0.1000000000D+01
  
  8 0
 s    3  1.00
  0.1873113700D+02  0.3349460400D-01
  0.2825394400D+01  0.2347269500D+00
  0.6401216900D+00  0.8137573301D+00
 s    1  1.00
  0.1612777600D+00  0.1000000000D+01
  
  9 0
 s    6  1.00
  0.3047524900D+04  0.1834737091D-02
  0.4573695200D+03  0.1403732293D-01
  0.1039486800D+03  0.6884262165D-01
  0.2921015500D+02  0.2321844388D+00
  0.9286663000D+01  0.4679413476D+00
  0.3163927000D+01  0.3623119882D+00
 s    3  1.00
  0.7868272300D+01 -0.1193324245D+00
  0.1881288500D+01 -0.1608541561D+00
  0.5442492600D+00  0.1143456443D+01
 s    1  1.00
  0.1687144800D+00  0.1000000000D+01
 p    3  1.00
  0.7868272300D+01  0.6899906693D-01
  0.1881288500D+01  0.3164239597D+00
  0.5442492600D+00  0.7443082892D+00
 p    1  1.00
  0.1687144800D+00  0.1000000000D+01
 d    1  1.00
  0.8000000000D+00  0.1000000000D+01
  
 10 0
 s    6  1.00
  0.3047524900D+04  0.1834737091D-02
  0.4573695200D+03  0.1403732293D-01
  0.1039486800D+03  0.6884262165D-01
  0.2921015500D+02  0.2321844388D+00
  0.9286663000D+01  0.4679413476D+00
  0.3163927000D+01  0.3623119882D+00
 s    3  1.00
  0.7868272300D+01 -0.1193324245D+00
  0.1881288500D+01 -0.1608541561D+00
  0.5442492600D+00  0.1143456443D+01
 s    1  1.00
  0.1687144800D+00  0.1000000000D+01
 p    3  1.00
  0.7868272300D+01  0.6899906693D-01
  0.1881288500D+01  0.3164239597D+00
  0.5442492600D+00  0.7443082892D+00
 p    1  1.00
  0.1687144800D+00  0.1000000000D+01
 d    1  1.00
  0.8000000000D+00  0.1000000000D+01
  
 11 0
 s    3  1.00
  0.1873113700D+02  0.3349460400D-01
  0.2825394400D+01  0.2347269500D+00
  0.6401216900D+00  0.8137573301D+00
 s    1  1.00
  0.1612777600D+00  0.1000000000D+01
  
 12 0
 s    3  1.00
  0.1873113700D+02  0.3349460400D-01
  0.2825394400D+01  0.2347269500D+00
  0.6401216900D+00  0.8137573301D+00
 s    1  1.00
  0.1612777600D+00  0.1000000000D+01
 
 
[MO]
 Sym=      1.1
 Ene=     -11.2255
 Spin= Alpha
 Occup=    2.000000
1 -0.69893389138005
2 -0.017356041670727
3 0.011177910679737
4 -0.000263256309010
5 -0.000094187095901
6 -0.000000032302421
7 0.001144944566639
8 0.001647906651529
9 0.000000008560882
10 -0.000304086735151
11 -0.000042263598689
12 0.000346350333840
13 -0.000159748959429
14 0.000000020612829
15 0.000000020997310
16 -0.076495243715272
17 -0.001170332353603
18 -0.002838620074772
19 -0.000250186035521
20 0.000083317421401
21 -0.000000017574064
22 0.001564266284320
23 -0.000350899194939
24 -0.000000023594031
25 0.000236917728416
26 -0.000087687381611
27 -0.000149230346805
28 0.000057972726390
29 0.000000002186228
30 -0.000000001093767
31 -0.076354217465648
32 -0.001167897574770
33 -0.002832199423189
34 -0.000253044132174
35 0.000072065100024
36 0.000000003121412
37 0.001485907338905
38 -0.000592408566897
39 -0.000000025159068
40 0.000086299883803
41 0.000062592521995
42 -0.000148892405798
43 -0.000195386152443
44 -0.000000001925147
45 0.000000000438117
46 -0.69752391641707
47 -0.017320501985524
48 0.011155158428812
49 -0.000164069309053
50 0.000225760211329
51 -0.000000005518649
52 0.000015135277634
53 -0.002002692332878
54 0.000000023914256
55 -0.000091447429696
56 -0.000254301253279
57 0.000345748682974
58 0.000198518777599
59 0.000000006973724
60 0.000000011572989
61 0.000381415465040
62 -0.001324589151567
63 0.000113160053350
64 -0.000388444262382
65 0.000113031816553
66 -0.000387833200408
67 0.000380732765795
68 -0.001321998483016
69 -0.073400022379587
70 -0.001005124698634
71 -0.005240279190080
72 0.000191758550216
73 -0.000059533082550
74 -0.000000015689513
75 -0.002610537998415
76 0.000810076313626
77 0.000000031736074
78 0.000076838481475
79 0.000267286370366
80 -0.000344124851841
81 0.000074608233107
82 -0.000000008984858
83 -0.000000002471889
84 -0.002606255990253
85 0.000187676911141
86 -0.000854599235381
87 0.000125818199322
88 -0.000039020819918
89 -0.000000004460878
90 -0.000492972147613
91 0.000152212041327
92 0.000000010957209
93 -0.000025915904434
94 -0.000054554670889
95 0.000080470575323
96 -0.000011413208928
97 0.000000004488081
98 0.000000001808426
99 0.000044418009781
100 -0.000132755792061
101 0.000044466808878
102 -0.000132755692174
 Sym=      2.1
 Ene=     -11.2255
 Spin= Alpha
 Occup=    2.000000
1 -0.70015392902415
2 -0.017649108951478
3 0.011303832039323
4 -0.000189465470266
5 -0.000231610113449
6 -0.000000044662161
7 0.000924769496851
8 0.001697028361328
9 -0.000000005487074
10 -0.000255431947913
11 -0.000043396291048
12 0.000298828238961
13 -0.000069726152587
14 0.000000015299576
15 0.000000016276793
16 -0.070053597233618
17 -0.001209607171360
18 -0.003193560465302
19 -0.000316613219883
20 -0.000025916000894
21 -0.000000036398387
22 0.001665087584829
23 -0.000515682605721
24 -0.000000040043342
25 0.000238122504623
26 -0.000070440669319
27 -0.000167681835304
28 -0.000058661960759
29 0.000000003474633
30 -0.000000003126257
31 0.070207511445726
32 0.001211963720732
33 0.003199258368461
34 0.000247214096846
35 -0.000200275960483
36 -0.000000039015047
37 -0.001668489882857
38 0.000515544058797
39 0.000000010596717
40 -0.000187302396465
41 0.000019320755576
42 0.000167981640888
43 0.000145147714494
44 0.000000006319253
45 -0.000000001142923
46 0.70155855177017
47 0.017683989016930
48 -0.011326289437089
49 0.000025963321154
50 -0.000298587801550
51 -0.000000024906157
52 0.000194691322895
53 0.001926834684945
54 -0.000000039224528
55 0.000131765245717
56 0.000167759301671
57 -0.000299524547389
58 -0.000139768559418
59 -0.000000008751981
60 -0.000000010546819
61 0.000339037442573
62 -0.001285635279457
63 0.000063559272820
64 -0.000304626377165
65 -0.000063786831553
66 0.000305407642862
67 -0.000339803921856
68 0.001288299163062
69 0.000074229727197
70 0.000001020187323
71 0.000005268388659
72 -0.000064607317153
73 -0.000208220482845
74 -0.000000028615844
75 0.000768897399071
76 0.002476916554426
77 -0.000000062428532
78 -0.000238796327406
79 0.000238450111716
80 0.000000346215691
81 -0.000403102215345
82 0.000000004475986
83 0.000000010501298
84 0.000002643350306
85 -0.000000188038325
86 0.000000856308303
87 -0.000030900088344
88 -0.000099465172207
89 -0.000000011768931
90 -0.000069077298587
91 -0.000225111741993
92 0.000000002090997
93 -0.000041884892854
94 0.000041965616767
95 -0.000000080723913
96 -0.000070746184577
97 0.000000002116692
98 0.000000003390691
99 -0.000024208193786
100 0.000000448830788
101 0.000024119062525
102 -0.000000181512806
 Sym=      3.1
 Ene=     -11.2192
 Spin= Alpha
 Occup=    2.000000
1 0.072778729969001
2 0.002488705223646
3 -0.004281689197542
4 0.000415127513434
5 0.000045859565961
6 0.000000008559051
7 -0.001603897401995
8 -0.000318129523970
9 0.000000029195415
10 0.000312387441849
11 -0.000130045468545
12 -0.000182341973304
13 0.000036642360244
14 -0.000000006075627
15 -0.000000001512304
16 -0.69852010889462
17 -0.017209734222921
18 0.008265922970061
19 0.000347063724925
20 -0.000052137867643
21 0.000000018926247
22 -0.001469289817844
23 0.000029507623205
24 0.000000042184749
25 -0.000429804580818
26 0.000266347278284
27 0.000163457302534
28 0.000213101202543
29 -0.000000000806476
30 0.000000009887742
31 -0.69847859613545
32 -0.017208658584779
33 0.008264947361734
34 0.000315876299194
35 -0.000152899668042
36 0.000000047057380
37 -0.001229189443997
38 0.000805237097299
39 -0.000000011886398
40 -0.000379918020180
41 0.000216492048859
42 0.000163425971321
43 0.000297302476612
44 0.000000027784144
45 0.000000003365211
46 0.072774685012313
47 0.002488563009692
48 -0.004281248234098
49 0.000316751233444
50 -0.000272193659362
51 0.000000025239516
52 -0.001144236172150
53 0.001167896998039
54 0.000000022780797
55 0.000141805017641
56 0.000040523504804
57 -0.000182328522445
58 -0.000251329446275
59 0.000000000817140
60 -0.000000006520132
61 0.000024838362615
62 0.000017362328372
63 0.000422162798366
64 -0.001399062988387
65 0.000422143911516
66 -0.001399013521242
67 0.000024837184617
68 0.000017370487574
69 0.075838725690535
70 0.001956670031479
71 0.000233606653741
72 0.000034669578012
73 -0.000010722173814
74 0.000000009950190
75 -0.000317184411047
76 0.000098025634233
77 0.000000001332212
78 -0.000067875169121
79 -0.000000200450992
80 0.000068075620113
81 0.000026724386410
82 0.000000000382271
83 0.000000000064716
84 0.005362632607232
85 0.000092566264028
86 -0.000358138574698
87 -0.000047982627595
88 0.000014838391127
89 -0.000000001737844
90 -0.000223079293077
91 0.000069023750094
92 0.000000010190801
93 -0.000015149249007
94 0.000000126900760
95 0.000015022348248
96 0.000006034206835
97 0.000000001818210
98 -0.000000000490381
99 0.000011212865417
100 -0.000059185289517
101 0.000011218336235
102 -0.000059163604974
 Sym=      4.1
 Ene=     -11.2184
 Spin= Alpha
 Occup=    2.000000
1 0.070432911625834
2 0.002423648588336
3 -0.007136468130268
4 0.000255337068150
5 0.000098446707504
6 -0.000000023647416
7 -0.001916277952586
8 -0.001507050413020
9 0.000000008742397
10 0.000269803004394
11 -0.000034592862682
12 -0.000235210141712
13 0.000096200045295
14 -0.000000009894548
15 -0.000000010181443
16 -0.70092972517756
17 -0.018138012343587
18 0.016198395325590
19 0.000318158656018
20 -0.000317034821191
21 -0.000000035076695
22 -0.001929871260451
23 0.003765394462645
24 -0.000000058354125
25 -0.000217039555342
26 -0.000314856858826
27 0.000531896414168
28 -0.000022132102928
29 0.000000008729008
30 0.000000016729165
31 0.70097021577363
32 0.018139011005326
33 -0.016198870449621
34 -0.000441606525785
35 -0.000082061692809
36 -0.000000048751794
37 0.003718702327172
38 0.002018461652522
39 -0.000000084993327
40 0.000230371469979
41 0.000301533180325
42 -0.000531904650303
43 0.000044588984485
44 -0.000000032466059
45 -0.000000020233294
46 -0.070436252199886
47 -0.002423761863325
48 0.007136642992588
49 -0.000155201708427
50 0.000225417879636
51 -0.000000028397364
52 0.000731016600392
53 -0.002325797542974
54 -0.000000007033979
55 -0.000095155145284
56 -0.000140059556927
57 0.000235214702211
58 0.000198686342271
59 0.000000000274647
60 0.000000010953994
61 0.000020087825496
62 -0.000092952088492
63 0.000303147670281
64 -0.000917348649083
65 -0.000303171935981
66 0.000917428383757
67 -0.000020087163373
68 0.000092957621983
69 -0.000011082241731
70 -0.000000280894789
71 0.000000131029186
72 -0.000001819043635
73 -0.000005880874390
74 -0.000000008206312
75 -0.000571917172030
76 -0.001849306592744
77 0.000000033835925
78 0.000020503510529
79 -0.000020506472180
80 0.000000002961651
81 0.000034623505856
82 -0.000000005068485
83 -0.000000000160364
84 -0.000000870984447
85 -0.000000012046317
86 -0.000000021127694
87 -0.000007970407537
88 -0.000025793672237
89 0.000000009465717
90 0.000275058800533
91 0.000889432890699
92 -0.000000056022360
93 0.000025360887105
94 -0.000025358241555
95 -0.000000002645550
96 0.000042808476807
97 0.000000004156591
98 -0.000000003034418
99 -0.000080527761925
100 -0.000310434969895
101 0.000080529820892
102 0.000310434170033
 Sym=      5.1
 Ene=     -11.2182
 Spin= Alpha
 Occup=    2.000000
1 -0.057494432072938
2 -0.002019911420765
3 0.004881722520982
4 -0.000000846017904
5 -0.000245380782695
6 0.000000001102374
7 -0.000480202429299
8 0.001509138787373
9 0.000000014079392
10 0.000128004384940
11 -0.000464413183549
12 0.000336408798609
13 0.000150092194477
14 0.000000002014432
15 0.000000005997720
16 0.047919679494204
17 0.001091717550466
18 -0.000876706666592
19 0.000023466260959
20 0.000037096835912
21 -0.000000004448416
22 0.000195049099313
23 -0.000045843041070
24 -0.000000001867166
25 0.000050633375633
26 0.000021637493613
27 -0.000072270869245
28 -0.000084247194116
29 -0.000000000603725
30 0.000000000691679
31 0.047932166594974
32 0.001092041098412
33 -0.000876998601065
34 -0.000001581391088
35 -0.000043868903399
36 -0.000000004040647
37 0.000186943247774
38 -0.000072240725935
39 0.000000003621350
40 0.000109391535567
41 -0.000037111049953
42 -0.000072280485614
43 0.000014947415657
44 -0.000000006285846
45 -0.000000001733284
46 -0.057496265817282
47 -0.002019970905442
48 0.004881859058484
49 0.000137826773473
50 0.000203022514081
51 -0.000000004068866
52 -0.001248309386335
53 -0.000974607880456
54 0.000000037329521
55 -0.000181939013062
56 -0.000154474646890
57 0.000336413659952
58 -0.000373175836848
59 0.000000013590809
60 0.000000010443596
61 -0.000110090997002
62 -0.000267764536109
63 -0.000045460415237
64 0.000155315205919
65 -0.000045465709467
66 0.000155331717851
67 -0.000110090656747
68 -0.000267763532425
69 0.98721846414132
70 0.024923509550571
71 -0.015733828885541
72 -0.000066442159274
73 0.000020548396421
74 0.000000012400892
75 -0.000597259488794
76 0.000184697676095
77 -0.000000015493338
78 0.000633583832212
79 -0.000066071616275
80 -0.000567512215936
81 -0.000276274460525
82 -0.000000033721200
83 0.000000000163653
84 0.079885225618434
85 0.001050107812632
86 0.003050123716399
87 -0.000532480557627
88 0.000164677625679
89 0.000000017525604
90 0.001594377840867
91 -0.000493078462139
92 -0.000000031703665
93 -0.000369253778482
94 0.000117302835241
95 0.000251950943241
96 0.000192130494670
97 0.000000018272728
98 -0.000000015642766
99 -0.000149193385154
100 0.000189300119842
101 -0.000149192194447
102 0.000189303463201
 Sym=      6.1
 Ene=     -11.2096
 Spin= Alpha
 Occup=    2.000000
1 0.002393697759177
2 0.000055728595016
3 -0.001400082996949
4 0.000118054902662
5 -0.000021670025382
6 0.000000005755853
7 -0.000835972016692
8 -0.000798146746359
9 0.000000001716926
10 -0.000018232613923
11 0.000064299090013
12 -0.000046066476090
13 -0.000027056476212
14 -0.000000004741239
15 -0.000000002593757
16 -0.000296069066830
17 -0.000016812355781
18 0.000908729250756
19 -0.000069650017554
20 0.000002029429954
21 -0.000000001810436
22 -0.000415776453864
23 0.000106137452814
24 0.000000011929243
25 0.000018585102233
26 -0.000014331749602
27 -0.000004253352632
28 -0.000011600850079
29 -0.000000000712740
30 0.000000000174799
31 -0.000296071279807
32 -0.000016811714548
33 0.000908720990411
34 -0.000058635516552
35 0.000037644946863
36 0.000000002383824
37 -0.000403098450281
38 0.000147117361563
39 -0.000000017501444
40 0.000017457365755
41 -0.000013204227396
42 -0.000004253138360
43 -0.000013504979689
44 0.000000002894563
45 -0.000000000042736
46 0.002393713009455
47 0.000055729449865
48 -0.001400084742216
49 0.000109677266872
50 -0.000048759553143
51 -0.000000012476042
52 -0.000239433823419
53 0.001130728333255
54 0.000000017508152
55 0.000029907032805
56 0.000016159511177
57 -0.000046066543982
58 0.000054217858522
59 -0.000000002788758
60 -0.000000001858560
61 -0.000065651012165
62 -0.000436787274544
63 -0.000011435699846
64 0.000048647511081
65 -0.000011435902161
66 0.000048645231871
67 -0.000065650687202
68 -0.000436783546123
69 -0.080477587190251
70 -0.002984049996279
71 0.006054774272400
72 0.000514450867231
73 -0.000159101804986
74 -0.000000011950658
75 -0.000416980913342
76 0.000128959307487
77 0.000000022725227
78 -0.000421372059523
79 0.000093691498883
80 0.000327680560641
81 0.000203385668878
82 0.000000026611055
83 0.000000010220318
84 0.99285184699645
85 0.024689595285238
86 -0.013472034043591
87 0.000463765690457
88 -0.000143426992240
89 -0.000000005266791
90 -0.000614964343840
91 0.000190188993691
92 0.000000004871651
93 0.000529804087482
94 0.000023447000999
95 -0.000553251088481
96 -0.000199949458624
97 -0.000000054586435
98 -0.000000058170880
99 -0.000329852775819
100 0.002684517737502
101 -0.000329851528813
102 0.002684518951646
 Sym=      7.1
 Ene=      -1.1513
 Spin= Alpha
 Occup=    2.000000
1 -0.099455108330540
2 0.19181900577170
3 0.10196710513777
4 0.050432399415317
5 0.058164760879333
6 0.000000171562211
7 -0.005903346435051
8 -0.003347098046775
9 0.000001069714990
10 0.006155154379454
11 0.005618985050269
12 -0.011774139429723
13 0.001094766823970
14 -0.000000366864168
15 -0.000000273701867
16 -0.096119455269723
17 0.18308801477552
18 0.12388314859177
19 -0.058062052068673
20 0.052512925646068
21 -0.000000046375718
22 -0.009558493282829
23 0.008176220238754
24 -0.000000179748872
25 0.006201111963695
26 0.005230900537284
27 -0.011432012500978